element,Atomic_Radius,Covalent_Radius,ionic_radius,Pauling_Electronegativity,number_of_valence_electrons
C,0.67,0.77,0.7,2.55,4
Ti,1.76,1.36,1.4,1.54,4
V,1.71,1.25,1.35,1.63,5
Zr,2.06,1.48,1.55,1.33,4
Nb,1.98,1.37,1.45,1.6,5
Mo,1.9,1.45,1.45,2.16,6
Hf,2.08,1.5,1.55,1.3,4
Ta,2,1.38,1.45,1.5,5
W,1.93,1.46,1.35,2.36,6